<?xml version="1.0" encoding="UTF-8"?>

<!-- generated on Mon 09 Dec 2019 11:11:16 AM EET by Eclipse SUMO GUI Version 1.3.1
<configuration xmlns:xsi="http://www.w3.org/2001/XMLSchema-instance" xsi:noNamespaceSchemaLocation="http://sumo.dlr.de/xsd/sumoConfiguration.xsd">

    <input>
        <net-file value="map.net.xml"/>
        <route-files value="routes.xml"/>
        <additional-files value="additional.xml"/>
    </input>

    <output>
        <emission-output value="output/emissions_vehicles.xml"/>
        <summary-output value="output/summary.xml"/>
        <tripinfo-output value="output/tripinfo.xml"/>
    </output>

    <time>
        <begin value="0"/>
        <end value="10000"/>
    </time>

    <emissions>
        <phemlight-path value="$SUMO_HOME/data/emissions/PHEMlight"/>
        <device.emissions.probability value="1"/>
        <device.emissions.explicit value="PHEMlight/PC_G_EU4"/>
        <device.emissions.deterministic value="true"/>
    </emissions>

    <gui_only>
        <gui-settings-file value="simulation.settings.xml"/>
    </gui_only>

</configuration>
-->

<meandata xmlns:xsi="http://www.w3.org/2001/XMLSchema-instance" xsi:noNamespaceSchemaLocation="http://sumo.dlr.de/xsd/meandata_file.xsd">
    <interval begin="0.00" end="93.00" id="EMISSIONS_DETECTOR_ID_1">
        <edge id="-110043961" sampledSeconds="17.68" CO_abs="1642.037130" CO2_abs="29043.303777" HC_abs="8.158222" PMx_abs="0.701149" NOx_abs="13.188396" fuel_abs="12.485199" electricity_abs="0"
            CO_normed="8117.845160" CO2_normed="143583.259310" HC_normed="40.332327" PMx_normed="3.466318" NOx_normed="65.200327" fuel_normed="61.723887" electricity_normed="0"
            traveltime="10.79" CO_perVeh="1002.116191" CO2_perVeh="17724.791003" HC_perVeh="4.978868" PMx_perVeh="0.427903" NOx_perVeh="8.048725" fuel_perVeh="7.619572" electricity_perVeh="0"/>
        <edge id="-110043965#0" sampledSeconds="10.95" CO_abs="958.843380" CO2_abs="54780.830686" HC_abs="5.663816" PMx_abs="1.053350" NOx_abs="22.939934" fuel_abs="23.547905" electricity_abs="0"
            CO_normed="643.713457" CO2_normed="36776.765255" HC_normed="3.802367" PMx_normed="0.707160" NOx_normed="15.400580" fuel_normed="15.808738" electricity_normed="0"
            traveltime="5.25" CO_perVeh="459.881129" CO2_perVeh="26274.020108" HC_perVeh="2.716483" PMx_perVeh="0.505208" NOx_perVeh="11.002467" fuel_perVeh="11.294063" electricity_perVeh="0"/>
        <edge id="-110043965#1" sampledSeconds="7.15" CO_abs="102.710222" CO2_abs="15055.160325" HC_abs="0.822212" PMx_abs="0.228387" NOx_abs="5.661487" fuel_abs="6.471543" electricity_abs="0"
            CO_normed="37.441186" CO2_normed="5488.091154" HC_normed="0.299723" PMx_normed="0.083254" NOx_normed="2.063794" fuel_normed="2.359086" electricity_normed="0"
            traveltime="6.83" CO_perVeh="98.091541" CO2_perVeh="14378.158782" HC_perVeh="0.785239" PMx_perVeh="0.218116" NOx_perVeh="5.406900" fuel_perVeh="6.180530" electricity_perVeh="0"/>
        <edge id="-203857390#0" sampledSeconds="1.86" CO_abs="190.453253" CO2_abs="7275.281581" HC_abs="1.037110" PMx_abs="0.139493" NOx_abs="3.106088" fuel_abs="3.127377" electricity_abs="0"
            CO_normed="36861.919854" CO2_normed="1408119.015764" HC_normed="200.730998" PMx_normed="26.998724" NOx_normed="601.178278" fuel_normed="605.298679" electricity_normed="0"
            traveltime="0.04" CO_perVeh="3.662563" CO2_perVeh="139.909261" HC_perVeh="0.019944" PMx_perVeh="0.002683" NOx_perVeh="0.059732" fuel_perVeh="0.060142" electricity_perVeh="0"/>
        <edge id="-203857390#1" sampledSeconds="4.86" CO_abs="109.470544" CO2_abs="5605.206095" HC_abs="0.630280" PMx_abs="0.105206" NOx_abs="2.363954" fuel_abs="2.409445" electricity_abs="0"
            CO_normed="377.679986" CO2_normed="19338.299447" HC_normed="2.174504" PMx_normed="0.362968" NOx_normed="8.155786" fuel_normed="8.312732" electricity_normed="0"
            traveltime="1.68" CO_perVeh="37.862500" CO2_perVeh="1938.668692" HC_perVeh="0.217994" PMx_perVeh="0.036388" NOx_perVeh="0.817619" fuel_perVeh="0.833353" electricity_perVeh="0"/>
        <edge id="-203857390#2" sampledSeconds="7.69" CO_abs="916.706662" CO2_abs="43342.865020" HC_abs="5.202006" PMx_abs="0.865239" NOx_abs="18.564189" fuel_abs="18.631285" electricity_abs="0"
            CO_normed="1270.967736" CO2_normed="60092.704991" HC_normed="7.212319" PMx_normed="1.199611" NOx_normed="25.738316" fuel_normed="25.831340" electricity_normed="0"
            traveltime="3.54" CO_perVeh="421.377182" CO2_perVeh="19923.160872" HC_perVeh="2.391175" PMx_perVeh="0.397720" NOx_perVeh="8.533292" fuel_perVeh="8.564134" electricity_perVeh="0"/>
        <edge id="-203983271#0" sampledSeconds="2.03" CO_abs="357.929233" CO2_abs="24209.394772" HC_abs="2.220809" PMx_abs="0.528847" NOx_abs="10.438478" fuel_abs="10.406428" electricity_abs="0"
            CO_normed="457.120592" CO2_normed="30918.438211" HC_normed="2.836253" PMx_normed="0.675405" NOx_normed="13.331248" fuel_normed="13.290316" electricity_normed="0"
            traveltime="1.74" CO_perVeh="307.245399" CO2_perVeh="20781.273168" HC_perVeh="1.906336" PMx_perVeh="0.453961" NOx_perVeh="8.960359" fuel_perVeh="8.932847" electricity_perVeh="0"/>
        <edge id="-203983271#1" sampledSeconds="0.51" CO_abs="65.412053" CO2_abs="4564.349696" HC_abs="0.407940" PMx_abs="0.093734" NOx_abs="1.945700" fuel_abs="1.961995" electricity_abs="0"
            CO_normed="1125.368650" CO2_normed="78526.446390" HC_normed="7.018320" PMx_normed="1.612620" NOx_normed="33.474417" fuel_normed="33.754755" electricity_normed="0"
            traveltime="0.16" CO_perVeh="20.300292" CO2_perVeh="1416.522320" HC_perVeh="0.126602" PMx_perVeh="0.029090" NOx_perVeh="0.603838" fuel_perVeh="0.608895" electricity_perVeh="0"/>
        <edge id="-203983271#2" sampledSeconds="4.25" CO_abs="460.753523" CO2_abs="26318.021045" HC_abs="2.722642" PMx_abs="0.512265" NOx_abs="11.179421" fuel_abs="11.312955" electricity_abs="0"
            CO_normed="496.260998" CO2_normed="28346.191012" HC_normed="2.932459" PMx_normed="0.551743" NOx_normed="12.040951" fuel_normed="12.184776" electricity_normed="0"
            traveltime="3.73" CO_perVeh="404.481720" CO2_perVeh="23103.802549" HC_perVeh="2.390126" PMx_perVeh="0.449703" NOx_perVeh="9.814079" fuel_perVeh="9.931305" electricity_perVeh="0"/>
        <edge id="-223099575#0" sampledSeconds="2.10" CO_abs="100.247496" CO2_abs="6775.309053" HC_abs="0.625786" PMx_abs="0.153756" NOx_abs="2.772580" fuel_abs="2.912383" electricity_abs="0"
            CO_normed="533.042337" CO2_normed="36026.102730" HC_normed="3.327469" PMx_normed="0.817560" NOx_normed="14.742538" fuel_normed="15.485906" electricity_normed="0"
            traveltime="0.42" CO_perVeh="19.990466" CO2_perVeh="1351.072003" HC_perVeh="0.124789" PMx_perVeh="0.030661" NOx_perVeh="0.552883" fuel_perVeh="0.580762" electricity_perVeh="0"/>
        <edge id="-223099575#1" sampledSeconds="12.32" CO_abs="496.446580" CO2_abs="33932.217899" HC_abs="3.111801" PMx_abs="0.767673" NOx_abs="13.633378" fuel_abs="14.585869" electricity_abs="0"
            CO_normed="241.090038" CO2_normed="16478.549855" HC_normed="1.511188" PMx_normed="0.372806" NOx_normed="6.620796" fuel_normed="7.083356" electricity_normed="0"
            traveltime="3.17" CO_perVeh="127.680336" CO2_perVeh="8726.975185" HC_perVeh="0.800319" PMx_perVeh="0.197437" NOx_perVeh="3.506348" fuel_perVeh="3.751317" electricity_perVeh="0"/>
        <edge id="-223099575#2" sampledSeconds="12.25" CO_abs="1245.889588" CO2_abs="80263.926293" HC_abs="7.688328" PMx_abs="1.858561" NOx_abs="32.815562" fuel_abs="34.501662" electricity_abs="0"
            CO_normed="610.790072" CO2_normed="39348.919646" HC_normed="3.769158" PMx_normed="0.911149" NOx_normed="16.087637" fuel_normed="16.914238" electricity_normed="0"
            traveltime="2.88" CO_perVeh="292.923541" CO2_perVeh="18871.008874" HC_perVeh="1.807618" PMx_perVeh="0.436970" NOx_perVeh="7.715331" fuel_perVeh="8.111753" electricity_perVeh="0"/>
        <edge id="-223099575#3" sampledSeconds="1.91" CO_abs="309.533318" CO2_abs="18423.050342" HC_abs="1.869632" PMx_abs="0.440234" NOx_abs="7.903694" fuel_abs="7.919167" electricity_abs="0"
            CO_normed="1558.118972" CO2_normed="92737.364868" HC_normed="9.411296" PMx_normed="2.216038" NOx_normed="39.785363" fuel_normed="39.863251" electricity_normed="0"
            traveltime="0.29" CO_perVeh="46.893444" CO2_perVeh="2791.041315" HC_perVeh="0.283244" PMx_perVeh="0.066694" NOx_perVeh="1.197388" fuel_perVeh="1.199732" electricity_perVeh="0"/>
        <edge id="-223099575#4" sampledSeconds="33.31" CO_abs="6018.684070" CO2_abs="385441.188166" HC_abs="36.875523" PMx_abs="8.580837" NOx_abs="164.643102" fuel_abs="165.682509" electricity_abs="0"
            CO_normed="1529.953499" CO2_normed="97979.406738" HC_normed="9.373783" PMx_normed="2.181254" NOx_normed="41.852386" fuel_normed="42.116604" electricity_normed="0"
            traveltime="8.06" CO_perVeh="1456.836868" CO2_perVeh="93296.961047" HC_perVeh="8.925809" PMx_perVeh="2.077012" NOx_perVeh="39.852256" fuel_perVeh="40.103847" electricity_perVeh="0"/>
        <edge id="-223505199" sampledSeconds="4.37" CO_abs="168.494935" CO2_abs="13653.186328" HC_abs="1.091602" PMx_abs="0.248226" NOx_abs="5.583424" fuel_abs="5.868879" electricity_abs="0"
            CO_normed="467.554451" CO2_normed="37886.052941" HC_normed="3.029073" PMx_normed="0.688799" NOx_normed="15.493372" fuel_normed="16.285478" electricity_normed="0"
            traveltime="1.07" CO_perVeh="41.345723" CO2_perVeh="3350.254165" HC_perVeh="0.267860" PMx_perVeh="0.060910" NOx_perVeh="1.370075" fuel_perVeh="1.440121" electricity_perVeh="0"/>
        <edge id="-223505200#0" sampledSeconds="3.15" CO_abs="21.825888" CO2_abs="2700.625117" HC_abs="0.161953" PMx_abs="0.037837" NOx_abs="1.016343" fuel_abs="1.160884" electricity_abs="0"
            CO_normed="50.865327" CO2_normed="6293.818609" HC_normed="0.377433" PMx_normed="0.088179" NOx_normed="2.368591" fuel_normed="2.705445" electricity_normed="0"
            traveltime="1.21" CO_perVeh="8.387969" CO2_perVeh="1037.884849" HC_perVeh="0.062241" PMx_perVeh="0.014541" NOx_perVeh="0.390594" fuel_perVeh="0.446143" electricity_perVeh="0"/>
        <edge id="-223505200#1" sampledSeconds="8.02" CO_abs="319.252173" CO2_abs="28884.156566" HC_abs="2.136977" PMx_abs="0.498307" NOx_abs="11.566194" fuel_abs="12.415992" electricity_abs="0"
            CO_normed="246.423702" CO2_normed="22295.042537" HC_normed="1.649486" PMx_normed="0.384632" NOx_normed="8.927690" fuel_normed="9.583630" electricity_normed="0"
            traveltime="3.63" CO_perVeh="144.423806" CO2_perVeh="13066.660708" HC_perVeh="0.966729" PMx_perVeh="0.225425" NOx_perVeh="5.232333" fuel_perVeh="5.616766" electricity_perVeh="0"/>
        <edge id="-223505200#2" sampledSeconds="6.95" CO_abs="480.701400" CO2_abs="25997.935229" HC_abs="2.803952" PMx_abs="0.496634" NOx_abs="10.938424" fuel_abs="11.175405" electricity_abs="0"
            CO_normed="1103.011032" CO2_normed="59654.516080" HC_normed="6.433910" PMx_normed="1.139570" NOx_normed="25.099163" fuel_normed="25.642936" electricity_normed="0"
            traveltime="1.64" CO_perVeh="113.137209" CO2_perVeh="6118.837660" HC_perVeh="0.659934" PMx_perVeh="0.116887" NOx_perVeh="2.574452" fuel_perVeh="2.630228" electricity_perVeh="0"/>
        <edge id="-223505200#3" sampledSeconds="1.24" CO_abs="13.005536" CO2_abs="2242.655006" HC_abs="0.110919" PMx_abs="0.028333" NOx_abs="0.812203" fuel_abs="0.964024" electricity_abs="0"
            CO_normed="2517.200438" CO2_normed="434062.259192" HC_normed="21.468247" PMx_normed="5.483867" NOx_normed="157.200499" fuel_normed="186.585219" electricity_normed="0"
            traveltime="0.02" CO_perVeh="0.166738" CO2_perVeh="28.751987" HC_perVeh="0.001422" PMx_perVeh="0.000363" NOx_perVeh="0.010413" fuel_perVeh="0.012359" electricity_perVeh="0"/>
        <edge id="-223583501#0" sampledSeconds="1.44" CO_abs="119.648885" CO2_abs="5625.544495" HC_abs="0.677438" PMx_abs="0.109642" NOx_abs="2.408676" fuel_abs="2.418189" electricity_abs="0"
            CO_normed="23157.848616" CO2_normed="1088815.063464" HC_normed="131.117014" PMx_normed="21.221054" NOx_normed="466.195274" fuel_normed="468.036622" electricity_normed="0"
            traveltime="0.03" CO_perVeh="2.300940" CO2_perVeh="108.183548" HC_perVeh="0.013028" PMx_perVeh="0.002109" NOx_perVeh="0.046321" fuel_perVeh="0.046504" electricity_perVeh="0"/>
        <edge id="-223583501#1" sampledSeconds="17.37" CO_abs="194.021550" CO2_abs="25484.043021" HC_abs="1.470368" PMx_abs="0.371313" NOx_abs="9.607591" fuel_abs="10.954481" electricity_abs="0"
            CO_normed="72.001837" CO2_normed="9457.186125" HC_normed="0.545657" PMx_normed="0.137795" NOx_normed="3.565399" fuel_normed="4.065233" electricity_normed="0"
            traveltime="8.29" CO_perVeh="92.573360" CO2_perVeh="12159.182726" HC_perVeh="0.701556" PMx_perVeh="0.177164" NOx_perVeh="4.584063" fuel_perVeh="5.226704" electricity_perVeh="0"/>
        <edge id="-223583501#2" sampledSeconds="9.45" CO_abs="97.324196" CO2_abs="16216.695837" HC_abs="0.793806" PMx_abs="0.203210" NOx_abs="5.870026" fuel_abs="6.970880" electricity_abs="0"
            CO_normed="62.415312" CO2_normed="10399.984504" HC_normed="0.509078" PMx_normed="0.130321" NOx_normed="3.764526" fuel_normed="4.470519" electricity_normed="0"
            traveltime="4.36" CO_perVeh="44.939477" CO2_perVeh="7488.064265" HC_perVeh="0.366540" PMx_perVeh="0.093832" NOx_perVeh="2.710486" fuel_perVeh="3.218806" electricity_perVeh="0"/>
        <edge id="-223583502#0" sampledSeconds="8.12" CO_abs="1269.217410" CO2_abs="84641.889452" HC_abs="7.839840" PMx_abs="1.818374" NOx_abs="36.251098" fuel_abs="36.383453" electricity_abs="0"
            CO_normed="388.817636" CO2_normed="25929.568193" HC_normed="2.401691" PMx_normed="0.557049" NOx_normed="11.105321" fuel_normed="11.145867" electricity_normed="0"
            traveltime="7.81" CO_perVeh="1220.906760" CO2_perVeh="81420.136656" HC_perVeh="7.541430" PMx_perVeh="1.749161" NOx_perVeh="34.871260" fuel_perVeh="34.998577" electricity_perVeh="0"/>
        <edge id="-223583502#1" sampledSeconds="1.00" CO_abs="99.907630" CO2_abs="5178.101762" HC_abs="0.576706" PMx_abs="0.097242" NOx_abs="2.186335" fuel_abs="2.225850" electricity_abs="0"
            CO_normed="1175.499122" CO2_normed="60924.817276" HC_normed="6.785446" PMx_normed="1.144131" NOx_normed="25.724114" fuel_normed="26.189034" electricity_normed="0"
            traveltime="0.40" CO_perVeh="39.649711" CO2_perVeh="2055.000579" HC_perVeh="0.228874" PMx_perVeh="0.038592" NOx_perVeh="0.867677" fuel_perVeh="0.883359" electricity_perVeh="0"/>
        <edge id="-223600259#1" sampledSeconds="20.25" CO_abs="1871.279205" CO2_abs="86752.388577" HC_abs="10.623559" PMx_abs="1.927482" NOx_abs="37.831627" fuel_abs="37.291017" electricity_abs="0"
            CO_normed="470.428721" CO2_normed="21809.046481" HC_normed="2.670701" PMx_normed="0.484558" NOx_normed="9.510651" fuel_normed="9.374745" electricity_normed="0"
            traveltime="19.61" CO_perVeh="1812.426544" CO2_perVeh="84023.982847" HC_perVeh="10.289443" PMx_perVeh="1.866861" NOx_perVeh="36.641804" fuel_perVeh="36.118196" electricity_perVeh="0"/>
        <edge id="-223600264#0" sampledSeconds="0.98" CO_abs="14.947844" CO2_abs="515.752426" HC_abs="0.079722" PMx_abs="0.008140" NOx_abs="0.209161" fuel_abs="0.221707" electricity_abs="0"
            CO_normed="2893.131046" CO2_normed="99823.050131" HC_normed="15.430117" PMx_normed="1.575420" NOx_normed="40.482776" fuel_normed="42.911017" electricity_normed="0"
            traveltime="0.04" CO_perVeh="0.574917" CO2_perVeh="19.836632" HC_perVeh="0.003066" PMx_perVeh="0.000313" NOx_perVeh="0.008045" fuel_perVeh="0.008527" electricity_perVeh="0"/>
        <edge id="-223600264#1" sampledSeconds="1.43" CO_abs="0" CO2_abs="0" HC_abs="0" PMx_abs="0" NOx_abs="0" fuel_abs="0" electricity_abs="0"
            CO_normed="0" CO2_normed="0" HC_normed="0" PMx_normed="0" NOx_normed="0" fuel_normed="0" electricity_normed="0"
            traveltime="0.88" CO_perVeh="0" CO2_perVeh="0" HC_perVeh="0" PMx_perVeh="0" NOx_perVeh="0" fuel_perVeh="0" electricity_perVeh="0"/>
        <edge id="-223600264#2" sampledSeconds="1.94" CO_abs="0" CO2_abs="0" HC_abs="0" PMx_abs="0" NOx_abs="0" fuel_abs="0" electricity_abs="0"
            CO_normed="0" CO2_normed="0" HC_normed="0" PMx_normed="0" NOx_normed="0" fuel_normed="0" electricity_normed="0"
            traveltime="1.64" CO_perVeh="0" CO2_perVeh="0" HC_perVeh="0" PMx_perVeh="0" NOx_perVeh="0" fuel_perVeh="0" electricity_perVeh="0"/>
        <edge id="-223600264#3" sampledSeconds="0.45" CO_abs="0" CO2_abs="0" HC_abs="0" PMx_abs="0" NOx_abs="0" fuel_abs="0" electricity_abs="0"
            CO_normed="0" CO2_normed="0" HC_normed="0" PMx_normed="0" NOx_normed="0" fuel_normed="0" electricity_normed="0"
            traveltime="0.19" CO_perVeh="0" CO2_perVeh="0" HC_perVeh="0" PMx_perVeh="0" NOx_perVeh="0" fuel_perVeh="0" electricity_perVeh="0"/>
        <edge id="-223600264#4" sampledSeconds="1.00" CO_abs="64.854198" CO2_abs="6203.444595" HC_abs="0.446296" PMx_abs="0.120466" NOx_abs="2.469630" fuel_abs="2.666567" electricity_abs="0"
            CO_normed="166.037372" CO2_normed="15881.834600" HC_normed="1.142590" PMx_normed="0.308412" NOx_normed="6.322657" fuel_normed="6.826848" electricity_normed="0"
            traveltime="0.75" CO_perVeh="48.737349" CO2_perVeh="4661.833115" HC_perVeh="0.335387" PMx_perVeh="0.090529" NOx_perVeh="1.855905" fuel_perVeh="2.003901" electricity_perVeh="0"/>
        <edge id="-223727787#0" sampledSeconds="78.56" CO_abs="8262.977367" CO2_abs="136556.025700" HC_abs="40.830287" PMx_abs="3.381593" NOx_abs="62.416848" fuel_abs="58.703353" electricity_abs="0"
            CO_normed="7948.737286" CO2_normed="131362.815719" HC_normed="39.277516" PMx_normed="3.252992" NOx_normed="60.043142" fuel_normed="56.470872" electricity_normed="0"
            traveltime="18.70" CO_perVeh="1966.767771" CO2_perVeh="32503.294924" HC_perVeh="9.718494" PMx_perVeh="0.804892" NOx_perVeh="14.856563" fuel_perVeh="13.972671" electricity_perVeh="0"/>
        <edge id="-223727787#1" sampledSeconds="4.15" CO_abs="106.425670" CO2_abs="7644.520044" HC_abs="0.672097" PMx_abs="0.166102" NOx_abs="3.234339" fuel_abs="3.286005" electricity_abs="0"
            CO_normed="276.304719" CO2_normed="19846.874912" HC_normed="1.744914" PMx_normed="0.431238" NOx_normed="8.397064" fuel_normed="8.531200" electricity_normed="0"
            traveltime="0.78" CO_perVeh="19.924746" CO2_perVeh="1431.187768" HC_perVeh="0.125828" PMx_perVeh="0.031097" NOx_perVeh="0.605525" fuel_perVeh="0.615198" electricity_perVeh="0"/>
        <edge id="-223727787#2" sampledSeconds="4.79" CO_abs="307.261646" CO2_abs="22441.761001" HC_abs="1.950428" PMx_abs="0.484828" NOx_abs="9.391501" fuel_abs="9.646623" electricity_abs="0"
            CO_normed="563.696645" CO2_normed="41171.247824" HC_normed="3.578219" PMx_normed="0.889457" NOx_normed="17.229477" fuel_normed="17.697519" electricity_normed="0"
            traveltime="0.97" CO_perVeh="62.099815" CO2_perVeh="4535.643267" HC_perVeh="0.394196" PMx_perVeh="0.097987" NOx_perVeh="1.898091" fuel_perVeh="1.949653" electricity_perVeh="0"/>
        <edge id="-223727787#3" sampledSeconds="6.54" CO_abs="416.308800" CO2_abs="32633.516112" HC_abs="2.691984" PMx_abs="0.669823" NOx_abs="13.396666" fuel_abs="14.027594" electricity_abs="0"
            CO_normed="523.730236" CO2_normed="41054.042306" HC_normed="3.386605" PMx_normed="0.842659" NOx_normed="16.853448" fuel_normed="17.647177" electricity_normed="0"
            traveltime="1.41" CO_perVeh="89.529087" CO2_perVeh="7017.984979" HC_perVeh="0.578923" PMx_perVeh="0.144048" NOx_perVeh="2.881013" fuel_perVeh="3.016697" electricity_perVeh="0"/>
        <edge id="-223727787#4" sampledSeconds="7.98" CO_abs="850.200049" CO2_abs="56994.163424" HC_abs="5.258423" PMx_abs="1.192973" NOx_abs="23.839775" fuel_abs="24.499115" electricity_abs="0"
            CO_normed="1044.129747" CO2_normed="69994.469573" HC_normed="6.457863" PMx_normed="1.465089" NOx_normed="29.277601" fuel_normed="30.087337" electricity_normed="0"
            traveltime="1.72" CO_perVeh="183.449518" CO2_perVeh="12297.754868" HC_perVeh="1.134621" PMx_perVeh="0.257410" NOx_perVeh="5.143960" fuel_perVeh="5.286228" electricity_perVeh="0"/>
        <edge id="-223727787#5" sampledSeconds="16.50" CO_abs="2224.595278" CO2_abs="148958.369333" HC_abs="13.778799" PMx_abs="3.263514" NOx_abs="63.514424" fuel_abs="64.029963" electricity_abs="0"
            CO_normed="819.736940" CO2_normed="54889.390060" HC_normed="5.077324" PMx_normed="1.202566" NOx_normed="23.404311" fuel_normed="23.594281" electricity_normed="0"
            traveltime="5.25" CO_perVeh="707.841084" CO2_perVeh="47396.870206" HC_perVeh="4.384258" PMx_perVeh="1.038413" NOx_perVeh="20.209572" fuel_perVeh="20.373611" electricity_perVeh="0"/>
        <edge id="-223727787#6" sampledSeconds="5.62" CO_abs="684.948407" CO2_abs="38643.631395" HC_abs="4.050451" PMx_abs="0.807760" NOx_abs="16.512890" fuel_abs="16.611141" electricity_abs="0"
            CO_normed="1513.363692" CO2_normed="85381.421554" HC_normed="8.949294" PMx_normed="1.784711" NOx_normed="36.484511" fuel_normed="36.701592" electricity_normed="0"
            traveltime="1.46" CO_perVeh="177.624276" CO2_perVeh="10021.261428" HC_perVeh="1.050383" PMx_perVeh="0.209472" NOx_perVeh="4.282206" fuel_perVeh="4.307685" electricity_perVeh="0"/>
        <edge id="-237523989#4" sampledSeconds="6.74" CO_abs="42.586066" CO2_abs="9461.350868" HC_abs="0.408724" PMx_abs="0.100599" NOx_abs="3.305575" fuel_abs="4.067057" electricity_abs="0"
            CO_normed="20.717517" CO2_normed="4602.813121" HC_normed="0.198839" PMx_normed="0.048940" NOx_normed="1.608115" fuel_normed="1.978566" electricity_normed="0"
            traveltime="6.78" CO_perVeh="42.820394" CO2_perVeh="9513.411670" HC_perVeh="0.410973" PMx_perVeh="0.101153" NOx_perVeh="3.323764" fuel_perVeh="4.089436" electricity_perVeh="0"/>
        <edge id="-237523989#5" sampledSeconds="2.67" CO_abs="87.417800" CO2_abs="6904.091209" HC_abs="0.563022" PMx_abs="0.130684" NOx_abs="2.855734" fuel_abs="2.967747" electricity_abs="0"
            CO_normed="106.045592" CO2_normed="8375.278708" HC_normed="0.682996" PMx_normed="0.158532" NOx_normed="3.464261" fuel_normed="3.600141" electricity_normed="0"
            traveltime="2.31" CO_perVeh="75.575779" CO2_perVeh="5968.830953" HC_perVeh="0.486753" PMx_perVeh="0.112981" NOx_perVeh="2.468883" fuel_perVeh="2.565722" electricity_perVeh="0"/>
        <edge id="-237523989#6" sampledSeconds="17.92" CO_abs="233.013956" CO2_abs="34359.937987" HC_abs="1.850602" PMx_abs="0.454214" NOx_abs="12.663464" fuel_abs="14.769889" electricity_abs="0"
            CO_normed="38.446337" CO2_normed="5669.247328" HC_normed="0.305342" PMx_normed="0.074943" NOx_normed="2.089419" fuel_normed="2.436970" electricity_normed="0"
            traveltime="17.55" CO_perVeh="228.151597" CO2_perVeh="33642.940825" HC_perVeh="1.811985" PMx_perVeh="0.444736" NOx_perVeh="12.399213" fuel_perVeh="14.461682" electricity_perVeh="0"/>
        <edge id="-237523989#7" sampledSeconds="1.68" CO_abs="0" CO2_abs="0" HC_abs="0" PMx_abs="0" NOx_abs="0" fuel_abs="0" electricity_abs="0"
            CO_normed="0" CO2_normed="0" HC_normed="0" PMx_normed="0" NOx_normed="0" fuel_normed="0" electricity_normed="0"
            traveltime="1.31" CO_perVeh="0" CO2_perVeh="0" HC_perVeh="0" PMx_perVeh="0" NOx_perVeh="0" fuel_perVeh="0" electricity_perVeh="0"/>
        <edge id="-237523989#8" sampledSeconds="6.21" CO_abs="394.623641" CO2_abs="26269.981307" HC_abs="2.427970" PMx_abs="0.533113" NOx_abs="11.207726" fuel_abs="11.292226" electricity_abs="0"
            CO_normed="201.500513" CO2_normed="13413.830658" HC_normed="1.239756" PMx_normed="0.272215" NOx_normed="5.722826" fuel_normed="5.765973" electricity_normed="0"
            traveltime="5.83" CO_perVeh="370.206883" CO2_perVeh="24644.564817" HC_perVeh="2.277743" PMx_perVeh="0.500128" NOx_perVeh="10.514265" fuel_perVeh="10.593536" electricity_perVeh="0"/>
        <edge id="-237523989#9" sampledSeconds="0.63" CO_abs="92.709261" CO2_abs="4674.663691" HC_abs="0.533965" PMx_abs="0.098176" NOx_abs="2.044313" fuel_abs="2.009429" electricity_abs="0"
            CO_normed="17943.727976" CO2_normed="904773.617673" HC_normed="103.348008" PMx_normed="19.001789" NOx_normed="395.673436" fuel_normed="388.921663" electricity_normed="0"
            traveltime="0.02" CO_perVeh="3.565741" CO2_perVeh="179.794757" HC_perVeh="0.020537" PMx_perVeh="0.003776" NOx_perVeh="0.078627" fuel_perVeh="0.077286" electricity_perVeh="0"/>
        <edge id="-244727543#0" sampledSeconds="12.04" CO_abs="693.413701" CO2_abs="39260.989155" HC_abs="4.092599" PMx_abs="0.778879" NOx_abs="16.724749" fuel_abs="16.876554" electricity_abs="0"
            CO_normed="527.344218" CO2_normed="29858.157669" HC_normed="3.112440" PMx_normed="0.592341" NOx_normed="12.719246" fuel_normed="12.834694" electricity_normed="0"
            traveltime="5.48" CO_perVeh="315.695504" CO2_perVeh="17874.636386" HC_perVeh="1.863267" PMx_perVeh="0.354606" NOx_perVeh="7.614398" fuel_perVeh="7.683511" electricity_perVeh="0"/>
        <edge id="-244727543#1" sampledSeconds="15.70" CO_abs="1036.847255" CO2_abs="59435.141029" HC_abs="6.133530" PMx_abs="1.164805" NOx_abs="25.295678" fuel_abs="25.548528" electricity_abs="0"
            CO_normed="572.064178" CO2_normed="32792.405026" HC_normed="3.384079" PMx_normed="0.642663" NOx_normed="13.956493" fuel_normed="14.095999" electricity_normed="0"
            traveltime="7.33" CO_perVeh="483.935627" CO2_perVeh="27740.616649" HC_perVeh="2.862749" PMx_perVeh="0.543659" NOx_perVeh="11.806445" fuel_perVeh="11.924459" electricity_perVeh="0"/>
        <edge id="-29394197#0" sampledSeconds="1.67" CO_abs="142.764453" CO2_abs="10558.709978" HC_abs="0.900967" PMx_abs="0.196347" NOx_abs="4.374037" fuel_abs="4.538707" electricity_abs="0"
            CO_normed="349.107134" CO2_normed="25819.599318" HC_normed="2.203168" PMx_normed="0.480135" NOx_normed="10.695993" fuel_normed="11.098665" electricity_normed="0"
            traveltime="1.27" CO_perVeh="108.495501" CO2_perVeh="8024.214064" HC_perVeh="0.684700" PMx_perVeh="0.149216" NOx_perVeh="3.324100" fuel_perVeh="3.449243" electricity_perVeh="0"/>
        <edge id="-29394197#1" sampledSeconds="3.22" CO_abs="367.084939" CO2_abs="19556.734095" HC_abs="2.135429" PMx_abs="0.385065" NOx_abs="8.357129" fuel_abs="8.406589" electricity_abs="0"
            CO_normed="607.253827" CO2_normed="32351.917445" HC_normed="3.532555" PMx_normed="0.636997" NOx_normed="13.824861" fuel_normed="13.906681" electricity_normed="0"
            traveltime="2.65" CO_perVeh="302.457309" CO2_perVeh="16113.647107" HC_perVeh="1.759473" PMx_perVeh="0.317272" NOx_perVeh="6.885803" fuel_perVeh="6.926556" electricity_perVeh="0"/>
        <edge id="-29394273#0" sampledSeconds="9.95" CO_abs="898.685614" CO2_abs="39885.863634" HC_abs="5.032639" PMx_abs="0.779665" NOx_abs="17.006384" fuel_abs="17.145334" electricity_abs="0"
            CO_normed="476.415095" CO2_normed="21144.466104" HC_normed="2.667924" PMx_normed="0.413319" NOx_normed="9.015498" fuel_normed="9.089158" electricity_normed="0"
            traveltime="9.97" CO_perVeh="899.918041" CO2_perVeh="39940.561747" HC_perVeh="5.039540" PMx_perVeh="0.780734" NOx_perVeh="17.029706" fuel_perVeh="17.168846" electricity_perVeh="0"/>
        <edge id="-295143807#0" sampledSeconds="1.57" CO_abs="225.877029" CO2_abs="6613.454447" HC_abs="1.184392" PMx_abs="0.142568" NOx_abs="2.924979" fuel_abs="2.842902" electricity_abs="0"
            CO_normed="43718.134739" CO2_normed="1280023.441368" HC_normed="229.237186" PMx_normed="27.593738" NOx_normed="566.124953" fuel_normed="550.239176" electricity_normed="0"
            traveltime="0.06" CO_perVeh="8.687578" CO2_perVeh="254.363633" HC_perVeh="0.045554" PMx_perVeh="0.005483" NOx_perVeh="0.112499" fuel_perVeh="0.109342" electricity_perVeh="0"/>
        <edge id="-295143807#1" sampledSeconds="0.37" CO_abs="2.284127" CO2_abs="918.491449" HC_abs="0.030685" PMx_abs="0.006471" NOx_abs="0.298928" fuel_abs="0.394826" electricity_abs="0"
            CO_normed="6.501309" CO2_normed="2614.302037" HC_normed="0.087339" PMx_normed="0.018418" NOx_normed="0.850838" fuel_normed="1.123794" electricity_normed="0"
            traveltime="1.08" CO_perVeh="6.741278" CO2_perVeh="2710.798089" HC_perVeh="0.090563" PMx_perVeh="0.019097" NOx_perVeh="0.882243" fuel_perVeh="1.165274" electricity_perVeh="0"/>
        <edge id="-295143807#2" sampledSeconds="23.65" CO_abs="362.625525" CO2_abs="49077.638939" HC_abs="2.766973" PMx_abs="0.662242" NOx_abs="18.229964" fuel_abs="21.096405" electricity_abs="0"
            CO_normed="83.479733" CO2_normed="11298.124126" HC_normed="0.636983" PMx_normed="0.152454" NOx_normed="4.196705" fuel_normed="4.856587" electricity_normed="0"
            traveltime="12.76" CO_perVeh="195.729500" CO2_perVeh="26489.976711" HC_perVeh="1.493492" PMx_perVeh="0.357449" NOx_perVeh="9.839742" fuel_perVeh="11.386923" electricity_perVeh="0"/>
        <edge id="-295143807#3" sampledSeconds="26.20" CO_abs="767.530854" CO2_abs="67341.546225" HC_abs="5.078691" PMx_abs="1.124799" NOx_abs="26.819554" fuel_abs="28.947151" electricity_abs="0"
            CO_normed="181.884737" CO2_normed="15958.185071" HC_normed="1.203517" PMx_normed="0.266548" NOx_normed="6.355533" fuel_normed="6.859718" electricity_normed="0"
            traveltime="12.71" CO_perVeh="372.367582" CO2_perVeh="32670.750151" HC_perVeh="2.463927" PMx_perVeh="0.545696" NOx_perVeh="13.011506" fuel_perVeh="14.043710" electricity_perVeh="0"/>