<?xml version="1.0" encoding="UTF-8"?>

<!-- generated on Mon 09 Dec 2019 11:11:16 AM EET by Eclipse SUMO GUI Version 1.3.1
<configuration xmlns:xsi="http://www.w3.org/2001/XMLSchema-instance" xsi:noNamespaceSchemaLocation="http://sumo.dlr.de/xsd/sumoConfiguration.xsd">

    <input>
        <net-file value="map.net.xml"/>
        <route-files value="routes.xml"/>
        <additional-files value="additional.xml"/>
    </input>

    <output>
        <emission-output value="output/emissions_vehicles.xml"/>
        <summary-output value="output/summary.xml"/>
        <tripinfo-output value="output/tripinfo.xml"/>
    </output>

    <time>
        <begin value="0"/>
        <end value="10000"/>
    </time>

    <emissions>
        <phemlight-path value="$SUMO_HOME/data/emissions/PHEMlight"/>
        <device.emissions.probability value="1"/>
        <device.emissions.explicit value="PHEMlight/PC_G_EU4"/>
        <device.emissions.deterministic value="true"/>
    </emissions>

    <gui_only>
        <gui-settings-file value="simulation.settings.xml"/>
    </gui_only>

</configuration>
-->

<emission-export xmlns:xsi="http://www.w3.org/2001/XMLSchema-instance" xsi:noNamespaceSchemaLocation="http://sumo.dlr.de/xsd/emission_file.xsd">
    <timestep time="0.00"/>
    <timestep time="1.00">
        <vehicle id="1" eclass="HBEFA3/PC_G_EU4" CO2="2624.72" CO="164.78" HC="0.81" NOx="1.20" PMx="0.07" fuel="1.13" electricity="0.00" noise="55.94" route="!1" type="DEFAULT_VEHTYPE" waiting="0.00" lane="517723469#4_0" pos="0.20" speed="0.00" angle="111.32" x="2256.52" y="1150.33"/>
    </timestep>
    <timestep time="2.00">
        <vehicle id="1" eclass="HBEFA3/PC_G_EU4" CO2="4039.82" CO="151.56" HC="0.79" NOx="1.80" PMx="0.09" fuel="1.74" electricity="0.00" noise="68.14" route="!1" type="DEFAULT_VEHTYPE" waiting="0.00" lane=":2520121329_11_0" pos="0.21" speed="2.55" angle="86.98" x="2258.57" y="1151.45"/>
    </timestep>
    <timestep time="3.00">
        <vehicle id="1" eclass="HBEFA3/PC_G_EU4" CO2="3565.74" CO="122.07" HC="0.64" NOx="1.54" PMx="0.07" fuel="1.53" electricity="0.00" noise="63.29" route="!1" type="DEFAULT_VEHTYPE" waiting="0.00" lane=":2520121331_4_0" pos="1.54" speed="3.87" angle="330.92" x="2256.06" y="1153.94"/>
        <vehicle id="3" eclass="HBEFA3/PC_G_EU4" CO2="2624.72" CO="164.78" HC="0.81" NOx="1.20" PMx="0.07" fuel="1.13" electricity="0.00" noise="55.94" route="!3" type="DEFAULT_VEHTYPE" waiting="0.00" lane="-29980970#2_0" pos="5.10" speed="0.00" angle="345.02" x="1048.22" y="1015.85"/>
    </timestep>
    <timestep time="4.00">
        <vehicle id="1" eclass="HBEFA3/PC_G_EU4" CO2="5232.33" CO="128.91" HC="0.71" NOx="2.28" PMx="0.11" fuel="2.25" electricity="0.00" noise="67.25" route="!1" type="DEFAULT_VEHTYPE" waiting="0.00" lane=":2520121331_4_0" pos="7.42" speed="5.89" angle="291.38" x="2250.58" y="1156.08"/>
        <vehicle id="3" eclass="HBEFA3/PC_G_EU4" CO2="3329.71" CO="147.54" HC="0.75" NOx="1.49" PMx="0.07" fuel="1.43" electricity="0.00" noise="64.93" route="!3" type="DEFAULT_VEHTYPE" waiting="0.00" lane="-29980970#2_0" pos="6.98" speed="1.88" angle="345.02" x="1047.74" y="1017.66"/>
        <vehicle id="4" eclass="HBEFA3/PC_G_EU4" CO2="2624.72" CO="164.78" HC="0.81" NOx="1.20" PMx="0.07" fuel="1.13" electricity="0.00" noise="55.94" route="!4" type="DEFAULT_VEHTYPE" waiting="0.00" lane="648762768#1_0" pos="5.10" speed="0.00" angle="78.46" x="1421.00" y="894.62"/>
    </timestep>
    <timestep time="5.00">
        <vehicle id="1" eclass="HBEFA3/PC_G_EU4" CO2="5778.68" CO="118.17" HC="0.67" NOx="2.48" PMx="0.11" fuel="2.48" electricity="0.00" noise="67.30" route="!1" type="DEFAULT_VEHTYPE" waiting="0.00" lane="-517723469#3_0" pos="1.58" speed="7.72" angle="291.36" x="2243.40" y="1158.89"/>
        <vehicle id="3" eclass="HBEFA3/PC_G_EU4" CO2="4177.16" CO="135.30" HC="0.71" NOx="1.83" PMx="0.09" fuel="1.80" electricity="0.00" noise="66.00" route="!3" type="DEFAULT_VEHTYPE" waiting="0.00" lane="-29980970#2_0" pos="10.80" speed="3.82" angle="345.02" x="1046.75" y="1021.35"/>
        <vehicle id="4" eclass="HBEFA3/PC_G_EU4" CO2="2955.05" CO="148.04" HC="0.74" NOx="1.32" PMx="0.07" fuel="1.27" electricity="0.00" noise="62.52" route="!4" type="DEFAULT_VEHTYPE" waiting="0.00" lane="648762768#1_0" pos="6.48" speed="1.38" angle="78.46" x="1422.35" y="894.90"/>
        <vehicle id="5" eclass="HBEFA3/PC_G_EU4" CO2="2624.72" CO="164.78" HC="0.81" NOx="1.20" PMx="0.07" fuel="1.13" electricity="0.00" noise="55.94" route="!5" type="DEFAULT_VEHTYPE" waiting="0.00" lane="29981096#10_0" pos="5.10" speed="0.00" angle="44.82" x="2403.23" y="1072.77"/>
    </timestep>
    <timestep time="6.00">
        <vehicle id="1" eclass="HBEFA3/PC_G_EU4" CO2="7046.64" CO="123.89" HC="0.73" NOx="3.03" PMx="0.14" fuel="3.03" electricity="0.00" noise="68.78" route="!1" type="DEFAULT_VEHTYPE" waiting="0.00" lane="-517723469#3_0" pos="11.26" speed="9.68" angle="291.33" x="2234.38" y="1162.42"/>
        <vehicle id="3" eclass="HBEFA3/PC_G_EU4" CO2="6073.94" CO="141.66" HC="0.79" NOx="2.66" PMx="0.13" fuel="2.61" electricity="0.00" noise="69.17" route="!3" type="DEFAULT_VEHTYPE" waiting="0.00" lane="-29980970#2_0" pos="17.05" speed="6.25" angle="345.02" x="1045.13" y="1027.39"/>
        <vehicle id="4" eclass="HBEFA3/PC_G_EU4" CO2="3267.70" CO="133.26" HC="0.68" NOx="1.43" PMx="0.07" fuel="1.40" electricity="0.00" noise="62.85" route="!4" type="DEFAULT_VEHTYPE" waiting="0.00" lane="648762768#1_0" pos="9.18" speed="2.70" angle="78.46" x="1425.00" y="895.44"/>
        <vehicle id="5" eclass="HBEFA3/PC_G_EU4" CO2="3876.66" CO="150.31" HC="0.78" NOx="1.73" PMx="0.09" fuel="1.67" electricity="0.00" noise="67.49" route="!5" type="DEFAULT_VEHTYPE" waiting="0.00" lane="29981096#10_0" pos="7.51" speed="2.41" angle="44.82" x="2404.94" y="1074.48"/>
        <vehicle id="6" eclass="HBEFA3/PC_G_EU4" CO2="2624.72" CO="164.78" HC="0.81" NOx="1.20" PMx="0.07" fuel="1.13" electricity="0.00" noise="55.94" route="!6" type="DEFAULT_VEHTYPE" waiting="0.00" lane="-710628942_0" pos="5.10" speed="0.00" angle="128.32" x="1230.69" y="1481.72"/>
    </timestep>
    <timestep time="7.00">
        <vehicle id="1" eclass="HBEFA3/PC_G_EU4" CO2="10083.52" CO="165.17" HC="1.00" NOx="4.40" PMx="0.22" fuel="4.33" electricity="0.00" noise="72.17" route="!1" type="DEFAULT_VEHTYPE" waiting="0.00" lane="-517723469#3_0" pos="23.42" speed="12.16" angle="291.60" x="2223.06" y="1166.86"/>
        <vehicle id="3" eclass="HBEFA3/PC_G_EU4" CO2="5832.95" CO="115.77" HC="0.67" NOx="2.50" PMx="0.11" fuel="2.51" electricity="0.00" noise="67.26" route="!3" type="DEFAULT_VEHTYPE" waiting="0.00" lane="-29980970#2_0" pos="25.09" speed="8.04" angle="345.02" x="1043.06" y="1035.15"/>
        <vehicle id="4" eclass="HBEFA3/PC_G_EU4" CO2="3775.14" CO="122.40" HC="0.65" NOx="1.63" PMx="0.08" fuel="1.62" electricity="0.00" noise="63.95" route="!4" type="DEFAULT_VEHTYPE" waiting="0.00" lane="648762768#1_0" pos="13.32" speed="4.14" angle="78.46" x="1429.06" y="896.27"/>
        <vehicle id="5" eclass="HBEFA3/PC_G_EU4" CO2="4381.13" CO="132.16" HC="0.70" NOx="1.91" PMx="0.09" fuel="1.88" electricity="0.00" noise="66.13" route="!5" type="DEFAULT_VEHTYPE" waiting="0.00" lane=":330043598_5_0" pos="0.10" speed="4.34" angle="42.27" x="2407.83" y="1077.70"/>
        <vehicle id="6" eclass="HBEFA3/PC_G_EU4" CO2="3271.81" CO="147.43" HC="0.75" NOx="1.46" PMx="0.07" fuel="1.41" electricity="0.00" noise="64.61" route="!6" type="DEFAULT_VEHTYPE" waiting="0.00" lane="-710628942_0" pos="6.91" speed="1.81" angle="128.32" x="1232.11" y="1480.59"/>
        <vehicle id="7" eclass="HBEFA3/PC_G_EU4" CO2="2624.72" CO="164.78" HC="0.81" NOx="1.20" PMx="0.07" fuel="1.13" electricity="0.00" noise="55.94" route="!7" type="DEFAULT_VEHTYPE" waiting="0.00" lane="29980944#5_0" pos="4.84" speed="0.00" angle="249.81" x="703.08" y="842.92"/>
    </timestep>
    <timestep time="8.00">
        <vehicle id="1" eclass="HBEFA3/PC_G_EU4" CO2="7031.95" CO="93.01" HC="0.59" NOx="2.93" PMx="0.13" fuel="3.02" electricity="0.00" noise="68.38" route="!1" type="DEFAULT_VEHTYPE" waiting="0.00" lane="-517723469#3_0" pos="36.92" speed="13.50" angle="291.92" x="2210.53" y="1171.90"/>
        <vehicle id="3" eclass="HBEFA3/PC_G_EU4" CO2="7019.82" CO="120.92" HC="0.72" NOx="3.01" PMx="0.14" fuel="3.02" electricity="0.00" noise="68.65" route="!3" type="DEFAULT_VEHTYPE" waiting="0.00" lane="-29980970#2_0" pos="35.02" speed="9.93" angle="345.02" x="1040.49" y="1044.75"/>
        <vehicle id="4" eclass="HBEFA3/PC_G_EU4" CO2="6545.04" CO="145.96" HC="0.82" NOx="2.87" PMx="0.14" fuel="2.81" electricity="0.00" noise="69.87" route="!4" type="DEFAULT_VEHTYPE" waiting="0.00" lane=":330040961_1_0" pos="1.74" speed="6.69" angle="82.65" x="1435.67" y="897.24"/>
        <vehicle id="5" eclass="HBEFA3/PC_G_EU4" CO2="4191.16" CO="109.68" HC="0.60" NOx="1.79" PMx="0.08" fuel="1.80" electricity="0.00" noise="64.41" route="!5" type="DEFAULT_VEHTYPE" waiting="0.00" lane=":330043598_5_0" pos="5.81" speed="5.71" angle="32.39" x="2410.90" y="1082.49"/>
        <vehicle id="6" eclass="HBEFA3/PC_G_EU4" CO2="5021.28" CO="145.66" HC="0.78" NOx="2.22" PMx="0.11" fuel="2.16" electricity="0.00" noise="68.65" route="!6" type="DEFAULT_VEHTYPE" waiting="0.00" lane="-710628942_0" pos="11.23" speed="4.31" angle="128.32" x="1235.50" y="1477.92"/>
        <vehicle id="7" eclass="HBEFA3/PC_G_EU4" CO2="3906.77" CO="150.53" HC="0.78" NOx="1.74" PMx="0.09" fuel="1.68" electricity="0.00" noise="67.62" route="!7" type="DEFAULT_VEHTYPE" waiting="0.00" lane=":6696568326_17_0" pos="0.10" speed="2.44" angle="227.43" x="702.20" y="840.79"/>
        <vehicle id="8" eclass="HBEFA3/PC_G_EU4" CO2="2624.72" CO="164.78" HC="0.81" NOx="1.20" PMx="0.07" fuel="1.13" electricity="0.00" noise="55.94" route="!8" type="DEFAULT_VEHTYPE" waiting="0.00" lane="-29980918#0_0" pos="5.10" speed="0.00" angle="315.40" x="2166.44" y="1038.24"/>
    </timestep>
    <timestep time="9.00">
        <vehicle id="1" eclass="HBEFA3/PC_G_EU4" CO2="6184.72" CO="69.58" HC="0.46" NOx="2.50" PMx="0.11" fuel="2.66" electricity="0.00" noise="67.77" route="!1" type="DEFAULT_VEHTYPE" waiting="0.00" lane="-517723469#3_0" pos="51.43" speed="14.51" angle="291.92" x="2197.08" y="1177.32"/>
        <vehicle id="3" eclass="HBEFA3/PC_G_EU4" CO2="6014.99" CO="88.63" HC="0.55" NOx="2.50" PMx="0.11" fuel="2.59" electricity="0.00" noise="67.03" route="!3" type="DEFAULT_VEHTYPE" waiting="0.00" lane="-29980970#2_0" pos="46.26" speed="11.25" angle="345.02" x="1037.58" y="1055.61"/>
        <vehicle id="4" eclass="HBEFA3/PC_G_EU4" CO2="5398.24" CO="104.70" HC="0.60" NOx="2.29" PMx="0.10" fuel="2.32" electricity="0.00" noise="66.34" route="!4" type="DEFAULT_VEHTYPE" waiting="0.00" lane=":330040961_1_0" pos="9.97" speed="8.23" angle="82.82" x="1443.85" y="898.23"/>
        <vehicle id="5" eclass="HBEFA3/PC_G_EU4" CO2="7493.29" CO="147.82" HC="0.85" NOx="3.28" PMx="0.16" fuel="3.22" electricity="0.00" noise="70.46" route="!5" type="DEFAULT_VEHTYPE" waiting="0.00" lane=":330043598_5_0" pos="14.05" speed="8.23" angle="344.85" x="2410.56" y="1090.27"/>
        <vehicle id="6" eclass="HBEFA3/PC_G_EU4" CO2="5676.66" CO="131.16" HC="0.73" NOx="2.47" PMx="0.12" fuel="2.44" electricity="0.00" noise="67.94" route="!6" type="DEFAULT_VEHTYPE" waiting="0.00" lane="-710628942_0" pos="17.66" speed="6.44" angle="128.32" x="1240.55" y="1473.93"/>
        <vehicle id="7" eclass="HBEFA3/PC_G_EU4" CO2="0.00" CO="0.00" HC="0.00" NOx="0.00" PMx="0.00" fuel="0.00" electricity="0.00" noise="55.91" route="!7" type="DEFAULT_VEHTYPE" waiting="0.00" lane=":6696568326_17_0" pos="2.32" speed="2.22" angle="166.20" x="704.16" y="839.91"/>
        <vehicle id="8" eclass="HBEFA3/PC_G_EU4" CO2="3467.50" CO="147.97" HC="0.76" NOx="1.55" PMx="0.08" fuel="1.49" electricity="0.00" noise="65.65" route="!8" type="DEFAULT_VEHTYPE" waiting="0.00" lane="-29980918#0_0" pos="7.13" speed="2.03" angle="315.40" x="2165.01" y="1039.69"/>
        <vehicle id="9" eclass="HBEFA3/PC_G_EU4" CO2="2624.72" CO="164.78" HC="0.81" NOx="1.20" PMx="0.07" fuel="1.13" electricity="0.00" noise="55.94" route="!9" type="DEFAULT_VEHTYPE" waiting="0.00" lane="-29980975#8_0" pos="5.10" speed="0.00" angle="47.29" x="1328.41" y="1137.98"/>
    </timestep>
    <timestep time="10.00">
        <vehicle id="1" eclass="HBEFA3/PC_G_EU4" CO2="0.00" CO="0.00" HC="0.00" NOx="0.00" PMx="0.00" fuel="0.00" electricity="0.00" noise="62.60" route="!1" type="DEFAULT_VEHTYPE" waiting="0.00" lane="-517723469#3_0" pos="65.00" speed="13.56" angle="291.92" x="2184.49" y="1182.39"/>
        <vehicle id="10" eclass="HBEFA3/PC_G_EU4" CO2="2624.72" CO="164.78" HC="0.81" NOx="1.20" PMx="0.07" fuel="1.13" electricity="0.00" noise="55.94" route="!10" type="DEFAULT_VEHTYPE" waiting="0.00" lane="726511408#0_0" pos="4.06" speed="0.00" angle="213.88" x="1186.64" y="1352.14"/>
        <vehicle id="3" eclass="HBEFA3/PC_G_EU4" CO2="5339.03" CO="66.99" HC="0.43" NOx="2.16" PMx="0.09" fuel="2.30" electricity="0.00" noise="66.37" route="!3" type="DEFAULT_VEHTYPE" waiting="0.00" lane="-29980970#2_0" pos="58.49" speed="12.23" angle="345.02" x="1034.42" y="1067.42"/>
        <vehicle id="4" eclass="HBEFA3/PC_G_EU4" CO2="5624.94" CO="95.04" HC="0.57" NOx="2.36" PMx="0.11" fuel="2.42" electricity="0.00" noise="66.50" route="!4" type="DEFAULT_VEHTYPE" waiting="0.00" lane="223600260#0_0" pos="5.55" speed="9.63" angle="76.72" x="1453.26" y="900.28"/>
        <vehicle id="5" eclass="HBEFA3/PC_G_EU4" CO2="4246.19" CO="71.55" HC="0.42" NOx="1.72" PMx="0.07" fuel="1.83" electricity="0.00" noise="64.29" route="!5" type="DEFAULT_VEHTYPE" waiting="0.00" lane=":330041412_4_1" pos="2.96" speed="9.14" angle="311.21" x="2404.02" y="1096.66"/>
        <vehicle id="6" eclass="HBEFA3/PC_G_EU4" CO2="7068.95" CO="134.69" HC="0.78" NOx="3.07" PMx="0.15" fuel="3.04" electricity="0.00" noise="69.33" route="!6" type="DEFAULT_VEHTYPE" waiting="0.00" lane="-710628942_0" pos="26.31" speed="8.65" angle="128.32" x="1247.33" y="1468.57"/>
        <vehicle id="7" eclass="HBEFA3/PC_G_EU4" CO2="2472.50" CO="121.55" HC="0.61" NOx="1.07" PMx="0.05" fuel="1.06" electricity="0.00" noise="57.73" route="!7" type="DEFAULT_VEHTYPE" waiting="0.00" lane="-29980944#5_0" pos="2.39" speed="2.41" angle="95.32" x="706.42" y="840.73"/>
        <vehicle id="8" eclass="HBEFA3/PC_G_EU4" CO2="4262.08" CO="134.70" HC="0.71" NOx="1.87" PMx="0.09" fuel="1.83" electricity="0.00" noise="66.13" route="!8" type="DEFAULT_VEHTYPE" waiting="0.00" lane="-29980918#0_0" pos="11.11" speed="3.98" angle="315.40" x="2162.22" y="1042.52"/>
        <vehicle id="9" eclass="HBEFA3/PC_G_EU4" CO2="3340.17" CO="147.57" HC="0.75" NOx="1.49" PMx="0.07" fuel="1.44" electricity="0.00" noise="64.99" route="!9" type="DEFAULT_VEHTYPE" waiting="0.00" lane="-29980975#8_0" pos="6.99" speed="1.89" angle="47.29" x="1329.80" y="1139.26"/>
    </timestep>
    <timestep time="11.00">
        <vehicle id="1" eclass="HBEFA3/PC_G_EU4" CO2="0.00" CO="0.00" HC="0.00" NOx="0.00" PMx="0.00" fuel="0.00" electricity="0.00" noise="64.23" route="!1" type="DEFAULT_VEHTYPE" waiting="0.00" lane="-517723469#3_0" pos="78.52" speed="13.53" angle="291.92" x="2171.94" y="1187.44"/>
        <vehicle id="10" eclass="HBEFA3/PC_G_EU4" CO2="3579.96" CO="148.48" HC="0.76" NOx="1.60" PMx="0.08" fuel="1.54" electricity="0.00" noise="66.19" route="!10" type="DEFAULT_VEHTYPE" waiting="0.00" lane=":4387531200_1_0" pos="2.14" speed="2.14" angle="214.06" x="1185.43" y="1350.37"/>
        <vehicle id="11" eclass="HBEFA3/PC_G_EU4" CO2="2624.72" CO="164.78" HC="0.81" NOx="1.20" PMx="0.07" fuel="1.13" electricity="0.00" noise="55.94" route="!11" type="DEFAULT_VEHTYPE" waiting="0.00" lane="-84306102#1_0" pos="0.20" speed="0.00" angle="81.51" x="953.99" y="1339.24"/>
        <vehicle id="3" eclass="HBEFA3/PC_G_EU4" CO2="3457.30" CO="25.53" HC="0.20" NOx="1.26" PMx="0.04" fuel="1.49" electricity="0.00" noise="64.66" route="!3" type="DEFAULT_VEHTYPE" waiting="0.00" lane=":330040922_0_0" pos="9.92" speed="12.60" angle="345.31" x="1031.22" y="1079.60"/>
        <vehicle id="4" eclass="HBEFA3/PC_G_EU4" CO2="6773.93" CO="104.54" HC="0.64" NOx="2.86" PMx="0.13" fuel="2.91" electricity="0.00" noise="68.03" route="!4" type="DEFAULT_VEHTYPE" waiting="0.00" lane="223600260#0_0" pos="16.76" speed="11.21" angle="76.72" x="1464.17" y="902.86"/>
        <vehicle id="5" eclass="HBEFA3/PC_G_EU4" CO2="9981.34" CO="166.67" HC="1.00" NOx="4.37" PMx="0.21" fuel="4.29" electricity="0.00" noise="72.26" route="!5" type="DEFAULT_VEHTYPE" waiting="0.00" lane=":330041412_4_1" pos="14.66" speed="11.69" angle="318.48" x="2395.80" y="1105.20"/>
        <vehicle id="6" eclass="HBEFA3/PC_G_EU4" CO2="6398.35" CO="105.22" HC="0.63" NOx="2.71" PMx="0.12" fuel="2.75" electricity="0.00" noise="67.62" route="!6" type="DEFAULT_VEHTYPE" waiting="0.00" lane="-710628942_0" pos="36.55" speed="10.25" angle="128.32" x="1255.37" y="1462.22"/>
        <vehicle id="7" eclass="HBEFA3/PC_G_EU4" CO2="4491.22" CO="133.54" HC="0.71" NOx="1.97" PMx="0.09" fuel="1.93" electricity="0.00" noise="66.47" route="!7" type="DEFAULT_VEHTYPE" waiting="0.00" lane=":6696568330_3_0" pos="1.95" speed="4.40" angle="69.85" x="710.56" y="842.25"/>
        <vehicle id="8" eclass="HBEFA3/PC_G_EU4" CO2="4711.25" CO="120.41" HC="0.66" NOx="2.03" PMx="0.09" fuel="2.03" electricity="0.00" noise="65.91" route="!8" type="DEFAULT_VEHTYPE" waiting="0.00" lane="-29980918#0_0" pos="16.83" speed="5.71" angle="315.40" x="2158.21" y="1046.59"/>
        <vehicle id="9" eclass="HBEFA3/PC_G_EU4" CO2="3418.67" CO="128.33" HC="0.66" NOx="1.49" PMx="0.07" fuel="1.47" electricity="0.00" noise="63.13" route="!9" type="DEFAULT_VEHTYPE" waiting="0.00" lane=":4812389562_8_0" pos="1.38" speed="3.23" angle="38.22" x="1331.48" y="1141.85"/>
    </timestep>
    <timestep time="12.00">
        <vehicle id="1" eclass="HBEFA3/PC_G_EU4" CO2="4815.84" CO="43.19" HC="0.31" NOx="1.87" PMx="0.08" fuel="2.07" electricity="0.00" noise="66.52" route="!1" type="DEFAULT_VEHTYPE" waiting="0.00" lane="-517723469#3_0" pos="92.71" speed="14.19" angle="291.92" x="2158.78" y="1192.74"/>
        <vehicle id="10" eclass="HBEFA3/PC_G_EU4" CO2="3898.53" CO="129.74" HC="0.68" NOx="1.70" PMx="0.08" fuel="1.68" electricity="0.00" noise="64.79" route="!10" type="DEFAULT_VEHTYPE" waiting="0.00" lane=":4387531200_1_0" pos="5.95" speed="3.81" angle="214.35" x="1183.28" y="1347.22"/>
        <vehicle id="11" eclass="HBEFA3/PC_G_EU4" CO2="2983.78" CO="147.86" HC="0.74" NOx="1.33" PMx="0.07" fuel="1.28" electricity="0.00" noise="62.74" route="!11" type="DEFAULT_VEHTYPE" waiting="0.00" lane=":2419306841_3_0" pos="1.42" speed="1.42" angle="81.74" x="955.19" y="1339.42"/>
        <vehicle id="12" eclass="HBEFA3/PC_G_EU4" CO2="2624.72" CO="164.78" HC="0.81" NOx="1.20" PMx="0.07" fuel="1.13" electricity="0.00" noise="55.94" route="!12" type="DEFAULT_VEHTYPE" waiting="0.00" lane="648762768#1_0" pos="5.10" speed="0.00" angle="78.46" x="1421.00" y="894.62"/>
        <vehicle id="3" eclass="HBEFA3/PC_G_EU4" CO2="3136.58" CO="17.08" HC="0.15" NOx="1.11" PMx="0.03" fuel="1.35" electricity="0.00" noise="64.53" route="!3" type="DEFAULT_VEHTYPE" waiting="0.00" lane="-29980970#1_0" pos="11.78" speed="12.86" angle="345.56" x="1028.00" y="1092.05"/>
        <vehicle id="4" eclass="HBEFA3/PC_G_EU4" CO2="10729.32" CO="168.59" HC="1.03" NOx="4.67" PMx="0.23" fuel="4.61" electricity="0.00" noise="72.42" route="!4" type="DEFAULT_VEHTYPE" waiting="0.00" lane="223600260#1_0" pos="4.10" speed="13.59" angle="77.25" x="1477.41" y="905.90"/>
        <vehicle id="5" eclass="HBEFA3/PC_G_EU4" CO2="8150.76" CO="116.88" HC="0.73" NOx="3.46" PMx="0.16" fuel="3.50" electricity="0.00" noise="69.56" route="!5" type="DEFAULT_VEHTYPE" waiting="0.00" lane="-223505199_1" pos="13.16" speed="13.37" angle="318.78" x="2386.98" y="1115.27"/>
        <vehicle id="6" eclass="HBEFA3/PC_G_EU4" CO2="0.00" CO="0.00" HC="0.00" NOx="0.00" PMx="0.00" fuel="0.00" electricity="0.00" noise="52.66" route="!6" type="DEFAULT_VEHTYPE" waiting="0.00" lane=":1184743239_12_0" pos="6.27" speed="6.84" angle="160.17" x="1258.31" y="1456.48"/>
        <vehicle id="7" eclass="HBEFA3/PC_G_EU4" CO2="4102.52" CO="107.82" HC="0.59" NOx="1.75" PMx="0.08" fuel="1.76" electricity="0.00" noise="64.16" route="!7" type="DEFAULT_VEHTYPE" waiting="0.00" lane=":6696568330_3_0" pos="7.66" speed="5.72" angle="69.85" x="715.92" y="844.22"/>
        <vehicle id="8" eclass="HBEFA3/PC_G_EU4" CO2="5285.26" CO="111.96" HC="0.63" NOx="2.26" PMx="0.10" fuel="2.27" electricity="0.00" noise="66.41" route="!8" type="DEFAULT_VEHTYPE" waiting="0.00" lane="-29980918#0_0" pos="24.20" speed="7.37" angle="315.40" x="2153.03" y="1051.84"/>
        <vehicle id="9" eclass="HBEFA3/PC_G_EU4" CO2="0.00" CO="0.00" HC="0.00" NOx="0.00" PMx="0.00" fuel="0.00" electricity="0.00" noise="56.35" route="!9" type="DEFAULT_VEHTYPE" waiting="0.00" lane=":4812389562_11_0" pos="2.06" speed="3.02" angle="332.61" x="1329.27" y="1142.91"/>
    </timestep>
    <timestep time="13.00">
        <vehicle id="1" eclass="HBEFA3/PC_G_EU4" CO2="0.00" CO="0.00" HC="0.00" NOx="0.00" PMx="0.00" fuel="0.00" electricity="0.00" noise="63.35" route="!1" type="DEFAULT_VEHTYPE" waiting="0.00" lane="-517723469#3_0" pos="106.39" speed="13.67" angle="291.92" x="2146.09" y="1197.84"/>
        <vehicle id="10" eclass="HBEFA3/PC_G_EU4" CO2="4946.88" CO="125.43" HC="0.69" NOx="2.15" PMx="0.10" fuel="2.13" electricity="0.00" noise="66.60" route="!10" type="DEFAULT_VEHTYPE" waiting="0.00" lane="726511408#1_0" pos="5.42" speed="5.70" angle="214.80" x="1180.03" y="1342.54"/>
        <vehicle id="11" eclass="HBEFA3/PC_G_EU4" CO2="0.00" CO="0.00" HC="0.00" NOx="0.00" PMx="0.00" fuel="0.00" electricity="0.00" noise="53.99" route="!11" type="DEFAULT_VEHTYPE" waiting="0.00" lane=":2419306841_3_0" pos="2.32" speed="0.90" angle="82.19" x="955.95" y="1339.49"/>
        <vehicle id="12" eclass="HBEFA3/PC_G_EU4" CO2="3890.55" CO="150.41" HC="0.78" NOx="1.73" PMx="0.09" fuel="1.67" electricity="0.00" noise="67.55" route="!12" type="DEFAULT_VEHTYPE" waiting="0.00" lane="648762768#1_0" pos="7.53" speed="2.43" angle="78.46" x="1423.38" y="895.11"/>
        <vehicle id="13" eclass="HBEFA3/PC_G_EU4" CO2="2624.72" CO="164.78" HC="0.81" NOx="1.20" PMx="0.07" fuel="1.13" electricity="0.00" noise="55.94" route="!13" type="DEFAULT_VEHTYPE" waiting="0.00" lane="643180859#0_0" pos="5.10" speed="0.00" angle="211.64" x="2580.71" y="817.81"/>
        <vehicle id="3" eclass="HBEFA3/PC_G_EU4" CO2="0.00" CO="0.00" HC="0.00" NOx="0.00" PMx="0.00" fuel="0.00" electricity="0.00" noise="61.51" route="!3" type="DEFAULT_VEHTYPE" waiting="0.00" lane="-29980970#1_0" pos="23.82" speed="12.05" angle="345.56" x="1025.00" y="1103.72"/>
        <vehicle id="4" eclass="HBEFA3/PC_G_EU4" CO2="9376.43" CO="131.07" HC="0.82" NOx="3.99" PMx="0.19" fuel="4.03" electricity="0.00" noise="70.76" route="!4" type="DEFAULT_VEHTYPE" waiting="0.00" lane=":1889917316_3_0" pos="2.62" speed="15.32" angle="77.39" x="1492.35" y="909.26"/>
        <vehicle id="5" eclass="HBEFA3/PC_G_EU4" CO2="8376.77" CO="112.57" HC="0.71" NOx="3.53" PMx="0.17" fuel="3.60" electricity="0.00" noise="69.81" route="!5" type="DEFAULT_VEHTYPE" waiting="0.00" lane="-295143810#2_1" pos="1.25" speed="14.90" angle="329.09" x="2378.30" y="1127.68"/>
        <vehicle id="6" eclass="HBEFA3/PC_G_EU4" CO2="0.00" CO="0.00" HC="0.00" NOx="0.00" PMx="0.00" fuel="0.00" electricity="0.00" noise="58.30" route="!6" type="DEFAULT_VEHTYPE" waiting="0.00" lane="726509434#2_0" pos="3.42" speed="6.55" angle="212.98" x="1255.11" y="1450.85"/>
        <vehicle id="7" eclass="HBEFA3/PC_G_EU4" CO2="5818.26" CO="120.35" HC="0.69" NOx="2.51" PMx="0.12" fuel="2.50" electricity="0.00" noise="67.45" route="!7" type="DEFAULT_VEHTYPE" waiting="0.00" lane="-29980944#4_0" pos="5.85" speed="7.60" angle="69.86" x="723.05" y="846.83"/>
        <vehicle id="8" eclass="HBEFA3/PC_G_EU4" CO2="5262.93" CO="96.31" HC="0.56" NOx="2.21" PMx="0.10" fuel="2.26" electricity="0.00" noise="65.99" route="!8" type="DEFAULT_VEHTYPE" waiting="0.00" lane="-29980918#0_0" pos="32.96" speed="8.76" angle="315.40" x="2146.88" y="1058.08"/>
        <vehicle id="9" eclass="HBEFA3/PC_G_EU4" CO2="0.00" CO="0.00" HC="0.00" NOx="0.00" PMx="0.00" fuel="0.00" electricity="0.00" noise="54.25" route="!9" type="DEFAULT_VEHTYPE" waiting="0.00" lane="29980975#8_0" pos="2.12" speed="2.40" angle="258.27" x="1327.44" y="1141.44"/>
    </timestep>
    <timestep time="14.00">
        <vehicle id="1" eclass="HBEFA3/PC_G_EU4" CO2="6424.60" CO="73.37" HC="0.49" NOx="2.61" PMx="0.12" fuel="2.76" electricity="0.00" noise="68.03" route="!1" type="DEFAULT_VEHTYPE" waiting="0.00" lane=":330041228_5_0" pos="1.41" speed="14.72" angle="291.92" x="2132.44" y="1203.34"/>
        <vehicle id="10" eclass="HBEFA3/PC_G_EU4" CO2="7050.54" CO="140.57" HC="0.81" NOx="3.08" PMx="0.15" fuel="3.03" electricity="0.00" noise="69.71" route="!10" type="DEFAULT_VEHTYPE" waiting="0.00" lane="726511408#1_0" pos="13.48" speed="8.06" angle="214.80" x="1175.43" y="1335.92"/>
        <vehicle id="11" eclass="HBEFA3/PC_G_EU4" CO2="0.00" CO="0.00" HC="0.00" NOx="0.00" PMx="0.00" fuel="0.00" electricity="0.00" noise="54.57" route="!11" type="DEFAULT_VEHTYPE" waiting="0.00" lane=":2419306841_3_0" pos="2.86" speed="0.54" angle="83.04" x="956.41" y="1339.49"/>
        <vehicle id="12" eclass="HBEFA3/PC_G_EU4" CO2="4031.94" CO="128.12" HC="0.68" NOx="1.76" PMx="0.08" fuel="1.73" electricity="0.00" noise="65.01" route="!12" type="DEFAULT_VEHTYPE" waiting="0.00" lane="648762768#1_0" pos="11.64" speed="4.11" angle="78.46" x="1427.41" y="895.93"/>
        <vehicle id="13" eclass="HBEFA3/PC_G_EU4" CO2="3134.61" CO="147.40" HC="0.74" NOx="1.40" PMx="0.07" fuel="1.35" electricity="0.00" noise="63.79" route="!13" type="DEFAULT_VEHTYPE" waiting="0.00" lane="643180859#0_0" pos="6.74" speed="1.64" angle="211.64" x="2579.85" y="816.41"/>
        <vehicle id="14" eclass="HBEFA3/PC_G_EU4" CO2="2624.72" CO="164.78" HC="0.81" NOx="1.20" PMx="0.07" fuel="1.13" electricity="0.00" noise="55.94" route="!14" type="DEFAULT_VEHTYPE" waiting="0.00" lane="28906993#0_0" pos="5.10" speed="0.00" angle="355.29" x="1396.43" y="870.36"/>
        <vehicle id="3" eclass="HBEFA3/PC_G_EU4" CO2="4348.84" CO="43.31" HC="0.30" NOx="1.68" PMx="0.07" fuel="1.87" electricity="0.00" noise="65.51" route="!3" type="DEFAULT_VEHTYPE" waiting="0.00" lane="-29980970#1_0" pos="36.50" speed="12.68" angle="345.56" x="1021.84" y="1116.00"/>
        <vehicle id="4" eclass="HBEFA3/PC_G_EU4" CO2="12868.01" CO="194.21" HC="1.20" NOx="5.58" PMx="0.28" fuel="5.53" electricity="0.00" noise="73.73" route="!4" type="DEFAULT_VEHTYPE" waiting="0.00" lane="223600260#2_0" pos="10.15" speed="17.53" angle="77.76" x="1509.47" y="913.01"/>
        <vehicle id="5" eclass="HBEFA3/PC_G_EU4" CO2="0.00" CO="0.00" HC="0.00" NOx="0.00" PMx="0.00" fuel="0.00" electricity="0.00" noise="62.58" route="!5" type="DEFAULT_VEHTYPE" waiting="0.00" lane="-295143810#2_1" pos="15.05" speed="13.79" angle="328.88" x="2371.17" y="1139.49"/>
        <vehicle id="6" eclass="HBEFA3/PC_G_EU4" CO2="5603.66" CO="109.28" HC="0.63" NOx="2.39" PMx="0.11" fuel="2.41" electricity="0.00" noise="66.75" route="!6" type="DEFAULT_VEHTYPE" waiting="0.00" lane="726509434#2_0" pos="11.62" speed="8.20" angle="215.57" x="1250.34" y="1444.18"/>
        <vehicle id="7" eclass="HBEFA3/PC_G_EU4" CO2="8618.68" CO="152.52" HC="0.90" NOx="3.76" PMx="0.18" fuel="3.70" electricity="0.00" noise="71.14" route="!7" type="DEFAULT_VEHTYPE" waiting="0.00" lane="-29980944#4_0" pos="15.92" speed="10.07" angle="69.86" x="732.51" y="850.31"/>
        <vehicle id="8" eclass="HBEFA3/PC_G_EU4" CO2="6922.16" CO="113.63" HC="0.68" NOx="2.95" PMx="0.14" fuel="2.98" electricity="0.00" noise="68.34" route="!8" type="DEFAULT_VEHTYPE" waiting="0.00" lane="-29980918#0_0" pos="43.47" speed="10.51" angle="315.40" x="2139.50" y="1065.56"/>
        <vehicle id="9" eclass="HBEFA3/PC_G_EU4" CO2="4692.68" CO="136.05" HC="0.73" NOx="2.06" PMx="0.10" fuel="2.02" electricity="0.00" noise="67.07" route="!9" type="DEFAULT_VEHTYPE" waiting="0.00" lane="29980975#8_0" pos="6.63" speed="4.52" angle="227.29" x="1324.12" y="1138.37"/>
    </timestep>
    <timestep time="15.00">
        <vehicle id="1" eclass="HBEFA3/PC_G_EU4" CO2="0.00" CO="0.00" HC="0.00" NOx="0.00" PMx="0.00" fuel="0.00" electricity="0.00" noise="64.08" route="!1" type="DEFAULT_VEHTYPE" waiting="0.00" lane=":330041228_5_0" pos="15.74" speed="14.33" angle="291.92" x="2119.15" y="1208.68"/>
        <vehicle id="10" eclass="HBEFA3/PC_G_EU4" CO2="0.00" CO="0.00" HC="0.00" NOx="0.00" PMx="0.00" fuel="0.00" electricity="0.00" noise="53.61" route="!10" type="DEFAULT_VEHTYPE" waiting="0.00" lane=":6690867672_0_0" pos="2.11" speed="6.22" angle="220.74" x="1171.49" y="1331.15"/>
        <vehicle id="11" eclass="HBEFA3/PC_G_EU4" CO2="0.00" CO="0.00" HC="0.00" NOx="0.00" PMx="0.00" fuel="0.00" electricity="0.00" noise="53.93" route="!11" type="DEFAULT_VEHTYPE" waiting="1.00" lane=":2419306841_3_0" pos="2.94" speed="0.08" angle="83.20" x="956.48" y="1339.49"/>
        <vehicle id="12" eclass="HBEFA3/PC_G_EU4" CO2="4336.74" CO="113.99" HC="0.62" NOx="1.86" PMx="0.08" fuel="1.86" electricity="0.00" noise="64.88" route="!12" type="DEFAULT_VEHTYPE" waiting="0.00" lane="648762768#1_0" pos="17.25" speed="5.61" angle="80.10" x="1432.93" y="896.91"/>
        <vehicle id="13" eclass="HBEFA3/PC_G_EU4" CO2="4263.42" CO="138.58" HC="0.73" NOx="1.88" PMx="0.09" fuel="1.83" electricity="0.00" noise="66.55" route="!13" type="DEFAULT_VEHTYPE" waiting="0.00" lane="643180859#0_0" pos="10.46" speed="3.72" angle="211.64" x="2577.90" y="813.24"/>